# vtk DataFile Version 2.0 
Quadtree Mesh 
ASCII 
DATASET UNSTRUCTURED_GRID 
POINTS 9 double 
-1.000000e+00 6.000000e+00 0.000000e+00
0.000000e+00 6.000000e+00 0.000000e+00
1.000000e+00 6.000000e+00 0.000000e+00
-1.000000e+00 4.000000e+00 0.000000e+00
0.000000e+00 4.000000e+00 0.000000e+00
1.000000e+00 4.000000e+00 0.000000e+00
-1.000000e+00 2.000000e+00 0.000000e+00
0.000000e+00 2.000000e+00 0.000000e+00
1.000000e+00 2.000000e+00 0.000000e+00
CELLS 4 20 
4 0 1 4 3
4 3 4 7 6
4 1 2 5 4
4 4 5 8 7
CELL_TYPES 4 
9 
9 
9 
9 
POINT_DATA 9 
SCALARS newData double 1 
LOOKUP_TABLE default 
0.000000e+00 
1.000000e+00 
2.000000e+00 
3.000000e+00 
4.000000e+00 
5.000000e+00 
6.000000e+00 
7.000000e+00 
8.000000e+00 
